 Gaussian 09, Revision D.01,
 Gaussian 09:  ES64L-G09RevD.01 24-Apr-2013

 ---------------------------------------------------------
 #p hf/3-21g geom=connectivity nosymmetry opt freq=noraman
 ---------------------------------------------------------

 -------------------
 Title Card Required
 -------------------
 Symbolic Z-matrix:
 Charge =  0 Multiplicity = 1

 SCF Done:  E(RHF) =  -76.3949718001     A.U. after    8 cycles
 SCF Done:  E(RHF) =  -76.3959315794     A.U. after    7 cycles
 SCF Done:  E(RHF) =  -76.3959568725     A.U. after    7 cycles
 Optimization completed.
    -- Stationary point found.
 Normal termination of Gaussian 09 at Fri Jul 15 09:20:50 2016.

 --------------------------------------------------------------
 #P Geom=AllCheck Guess=TCheck SCRF=Check GenChk RHF/3-21G Freq
 --------------------------------------------------------------

 Structure from the checkpoint file:  "/scratch/users/ekwan16/numfreq/Gau-137631.chk"
 -------------------
 Title Card Required
 -------------------
 Charge =  0 Multiplicity = 1

                           Standard orientation:
 ---------------------------------------------------------------------
 Center     Atomic      Atomic             Coordinates (Angstroms)
 Number     Number       Type             X           Y           Z
 ---------------------------------------------------------------------
      1          6           0       -2.463338    0.019920    0.000000
      2          1           0       -3.514069    0.019920    0.000000
      3          6           0       -1.275701    0.019920    0.000000
      4          1           0       -0.224970    0.019920    0.000000
 ---------------------------------------------------------------------

 SCF Done:  E(RHF) =  -76.3959568725     A.U. after    1 cycles

 Alpha  occ. eigenvalues --  -11.18093 -11.17847  -1.03615  -0.75875  -0.68148
 Alpha  occ. eigenvalues --   -0.41219  -0.41219
 Alpha virt. eigenvalues --    0.22578   0.22578   0.28222   0.33195   0.68800
 Alpha virt. eigenvalues --    0.91680   0.95725   0.95725   1.09719   1.09719
 Alpha virt. eigenvalues --    1.25869   1.31731   1.54469   1.68638   2.30446

 Mulliken charges:
               1
     1  C   -0.333599
     2  H    0.333599
     3  C   -0.333599
     4  H    0.333599
 Sum of Mulliken charges =   0.00000

 Dipole moment (field-independent basis, Debye):
    X=              0.0000    Y=              0.0000    Z=              0.0000  Tot=              0.0000
 Quadrupole moment (field-independent basis, Debye-Ang):
   XX=             -6.9545   YY=            -13.5620   ZZ=            -13.5620
   XY=              0.0000   XZ=              0.0000   YZ=              0.0000

  Exact polarizability:  26.647   0.000   5.368   0.000   0.000   5.368
 Approx polarizability:  27.643   0.000   4.385   0.000   0.000   4.385

                      1                      2                      3
                      A                      A                      A
 Frequencies --    901.5117               901.5117               917.6276
 Red. masses --      1.0848                 1.0848                 1.5720
 Frc consts  --      0.5195                 0.5195                 0.7799
 IR Inten    --    131.4645               131.4645                 0.0000

                      4                      5                      6
                      A                      A                      A
 Frequencies --    917.6276              2233.2720              3597.6077
 Red. masses --      1.5720                 3.6378                 1.0848
 Frc consts  --      0.7799                10.6898                 8.2724
 IR Inten    --      0.0000                 0.0000                99.3912

                      7
                      A
 Frequencies --   3720.6206
 Red. masses --      1.2489
 Frc consts  --     10.1865
 IR Inten    --      0.0000

 - Thermochemistry -
 -------------------
 Temperature   298.150 Kelvin.  Pressure   1.00000 Atm.
 Atom     1 has atomic number  6 and mass  12.00000

 Molecular mass:    26.01565 amu.
 Principal axes and moments of inertia in atomic units:
                           1         2         3
     Eigenvalues --     0.00000  49.68887  49.68887
           X            1.00000   0.00000   0.00000
           Y            0.00000  -0.69897   0.71515
           Z            0.00000   0.71515   0.69897
 This molecule is a prolate symmetric top.
 Rotational symmetry number  1.
 Rotational temperature (Kelvin)      1.74312
 Rotational constant (GHZ):          36.320832
 Zero-point vibrational energy      78892.4 (Joules/Mol)
                                   18.85574 (Kcal/Mol)
 Vibrational temperatures:   1297.07  1297.07  1320.26  1320.26  3213.18
          (Kelvin)           5176.15  5353.14

 Zero-point correction=                           0.030049 (Hartree/Particle)
 Thermal correction to Energy=                    0.032618
 Thermal correction to Enthalpy=                  0.033562
 Thermal correction to Gibbs Free Energy=         0.010542
 Sum of electronic and zero-point Energies=            -76.365908
 Sum of electronic and thermal Energies=               -76.363339
 Sum of electronic and thermal Enthalpies=             -76.362395
 Sum of electronic and thermal Free Energies=          -76.385414

                     E (Thermal)             CV                S
                      KCal/Mol        Cal/Mol-Kelvin    Cal/Mol-Kelvin
 Total                   20.468              6.922             48.448
 Electronic               0.000              0.000              0.000
 Translational            0.889              2.981             35.704
 Rotational               0.592              1.987             12.205
 Vibrational             18.987              1.954              0.538

 Optimization completed.
    -- Stationary point found.
 Normal termination of Gaussian 09 at Fri Jul 15 09:20:51 2016.
