 Gaussian 09, Revision D.01,
 Gaussian 09:  ES64L-G09RevD.01 24-Apr-2013

 -----------------------------------------------------------
 #p hf/6-31g* geom=connectivity opt freq=noraman iop(7/32=3)
 -----------------------------------------------------------

 -------------------
 Title Card Required
 -------------------
 Symbolic Z-matrix:
 Charge =  0 Multiplicity = 1

 SCF Done:  E(RHF) =  -1.07568569115     A.U. after    4 cycles
 SCF Done:  E(RHF) =  -1.10512857522     A.U. after    5 cycles
 SCF Done:  E(RHF) =  -1.12610577514     A.U. after    5 cycles
 SCF Done:  E(RHF) =  -1.12682667864     A.U. after    4 cycles
 SCF Done:  E(RHF) =  -1.12682782541     A.U. after    3 cycles
 Optimization completed.
    -- Stationary point found.
 Normal termination of Gaussian 09 at Thu Jul 14 19:38:42 2016.

 ----------------------------------------------------------------------
 #P Geom=AllCheck Guess=TCheck SCRF=Check Test GenChk RHF/6-31G(d) Freq
 ----------------------------------------------------------------------

 Structure from the checkpoint file:  "/scratch/users/ekwan16/numfreq/Gau-99690.chk"
 -------------------
 Title Card Required
 -------------------
 Charge =  0 Multiplicity = 1

                         Standard orientation:
 ---------------------------------------------------------------------
 Center     Atomic      Atomic             Coordinates (Angstroms)
 Number     Number       Type             X           Y           Z
 ---------------------------------------------------------------------
      1          1           0        0.000000    0.000000    0.364979
      2          1           0        0.000000    0.000000   -0.364979
 ---------------------------------------------------------------------

 SCF Done:  E(RHF) =  -1.12682782541     A.U. after    1 cycles

 The electronic state is 1-SGG.
 Alpha  occ. eigenvalues --   -0.59888
 Alpha virt. eigenvalues --    0.24115   0.76989   1.41787

 Mulliken charges:
               1
     1  H    0.000000
     2  H    0.000000
 Sum of Mulliken charges =   0.00000

 Dipole moment (field-independent basis, Debye):
    X=              0.0000    Y=              0.0000    Z=              0.0000  Tot=              0.0000
 Quadrupole moment (field-independent basis, Debye-Ang):
   XX=             -2.0275   YY=             -2.0275   ZZ=             -1.6134
   XY=              0.0000   XZ=              0.0000   YZ=              0.0000

  Exact polarizability:   0.000   0.000   0.000   0.000   0.000   6.352
 Approx polarizability:   0.000   0.000   0.000   0.000   0.000   4.948

                      1
                     SGG
 Frequencies --   4646.2084
 Red. masses --      1.0078
 Frc consts  --     12.8184
 IR Inten    --      0.0000

 - Thermochemistry -
 -------------------
 Temperature   298.150 Kelvin.  Pressure   1.00000 Atm.
 Atom     1 has atomic number  1 and mass   1.00783

 Molecular mass:     2.01565 amu.
 Principal axes and moments of inertia in atomic units:
                           1         2         3
     Eigenvalues --     0.00000   0.95884   0.95884
           X            0.00000   1.00000   0.00000
           Y            0.00000   0.00000   1.00000
           Z            1.00000   0.00000   0.00000
 This molecule is a prolate symmetric top.
 Rotational symmetry number  2.
 Rotational temperature (Kelvin)     90.33143
 Rotational constant (GHZ):        1882.203898
 Zero-point vibrational energy      27790.5 (Joules/Mol)
                                    6.64209 (Kcal/Mol)
 Vibrational temperatures:   6684.85
          (Kelvin)

 Zero-point correction=                           0.010585 (Hartree/Particle)
 Thermal correction to Energy=                    0.012945
 Thermal correction to Enthalpy=                  0.013889
 Thermal correction to Gibbs Free Energy=        -0.000870
 Sum of electronic and zero-point Energies=             -1.116243
 Sum of electronic and thermal Energies=                -1.113883
 Sum of electronic and thermal Enthalpies=              -1.112938
 Sum of electronic and thermal Free Energies=           -1.127697

                     E (Thermal)             CV                S
                      KCal/Mol        Cal/Mol-Kelvin    Cal/Mol-Kelvin
 Total                    8.123              4.968             31.063
 Electronic               0.000              0.000              0.000
 Translational            0.889              2.981             28.080
 Rotational               0.592              1.987              2.983
 Vibrational              6.642              0.000              0.000

 Optimization completed.
    -- Stationary point found.
 Normal termination of Gaussian 09 at Thu Jul 14 19:38:44 2016.
