 Gaussian 16, Revision A.03,
 Gaussian 16:  ES64L-G16RevA.03 25-Dec-2016

 --------------------------------------------------------------------
 #p opt=verytight int=superfinegrid freq=noraman pop=cm5 b3lyp 6-31g*
 --------------------------------------------------------------------

 -----
 title
 -----
 Symbolic Z-matrix:
 Charge =  0 Multiplicity = 1

 SCF Done:  E(RB3LYP) =  -93.4226166315     A.U. after   10 cycles
 SCF Done:  E(RB3LYP) =  -93.4226175229     A.U. after    7 cycles
 SCF Done:  E(RB3LYP) =  -93.4226175328     A.U. after    6 cycles
 Optimization completed.
    -- Stationary point found.
 Normal termination of Gaussian 16 at Sat Oct 14 11:59:26 2017.

 --------------------------------------------------------------------
 #P Geom=AllCheck Guess=TCheck SCRF=Check GenChk RB3LYP/6-31G(d) Freq
 --------------------------------------------------------------------

 Structure from the checkpoint file:  "/scratch/Gau-18207.chk"
 -----
 title
 -----
 Charge =  0 Multiplicity = 1

                         Standard orientation:
 ---------------------------------------------------------------------
 Center     Atomic      Atomic             Coordinates (Angstroms)
 Number     Number       Type             X           Y           Z
 ---------------------------------------------------------------------
      1          7           0        0.000000    0.000000    0.654989
      2          6           0        0.000000    0.000000   -0.502069
      3          1           0        0.000000    0.000000   -1.572514
 ---------------------------------------------------------------------

 SCF Done:  E(RB3LYP) =  -93.4226175328     A.U. after    1 cycles

 The electronic state is 1-SG.
 Alpha  occ. eigenvalues --  -14.36053 -10.24681  -0.91977  -0.60876  -0.38047
 Alpha  occ. eigenvalues --   -0.35915  -0.35915
 Alpha virt. eigenvalues --    0.02047   0.02047   0.08098   0.27770   0.51961
 Alpha virt. eigenvalues --    0.51961   0.63617   0.68982   0.77120   0.77120
 Alpha virt. eigenvalues --    0.81034   1.09220   1.43884   1.50627   1.50627

 Mulliken charges:
               1
     1  N   -0.358137
     2  C    0.108618
     3  H    0.249520
 Sum of Mulliken charges =   0.00000

 Dipole moment (field-independent basis, Debye):
    X=              0.0000    Y=              0.0000    Z=             -2.9047  Tot=              2.9047
 Quadrupole moment (field-independent basis, Debye-Ang):
   XX=            -11.3955   YY=            -11.3955   ZZ=             -9.5446
   XY=              0.0000   XZ=              0.0000   YZ=              0.0000

  Exact polarizability:   7.722   0.000   7.722   0.000   0.000  19.874
 Approx polarizability:  10.023   0.000  10.023   0.000   0.000  38.630

                      1                      2                      3
                     PI                     PI                     SG
 Frequencies --    766.4932               766.4932              2213.7461
 Red. masses --      1.3426                 1.3426                 5.1181
 Frc consts  --      0.4647                 0.4647                14.7781
 IR Inten    --     35.5018                35.5018                 1.9681

                      4
                     SG
 Frequencies --   3481.0352
 Red. masses --      1.1897
 Frc consts  --      8.4940
 IR Inten    --     52.4794

 - Thermochemistry -
 -------------------
 Temperature   298.150 Kelvin.  Pressure   1.00000 Atm.
 Atom     1 has atomic number  7 and mass  14.00307

 Molecular mass:    27.01090 amu.
 Principal axes and moments of inertia in atomic units:
                           1         2         3
     Eigenvalues --     0.00000  40.83207  40.83207
           X            0.00000   0.00000   1.00000
           Y            0.00000   1.00000   0.00000
           Z            1.00000   0.00000   0.00000
 This molecule is a prolate symmetric top.
 Rotational symmetry number  1.
 Rotational temperature (Kelvin)      2.12122
 Rotational constant (GHZ):          44.199109
 Zero-point vibrational energy      43231.7 (Joules/Mol)
                                   10.33261 (Kcal/Mol)
 Vibrational temperatures:   1102.81  1102.81  3185.09  5008.43
          (Kelvin)

 Zero-point correction=                           0.016466 (Hartree/Particle)
 Thermal correction to Energy=                    0.019004
 Thermal correction to Enthalpy=                  0.019948
 Thermal correction to Gibbs Free Energy=        -0.002908
 Sum of electronic and zero-point Energies=            -93.406151
 Sum of electronic and thermal Energies=               -93.403613
 Sum of electronic and thermal Enthalpies=             -93.402669
 Sum of electronic and thermal Free Energies=          -93.425525

                     E (Thermal)             CV                S
                      KCal/Mol        Cal/Mol-Kelvin    Cal/Mol-Kelvin
 Total                   11.925              6.388             48.105
 Electronic               0.000              0.000              0.000
 Translational            0.889              2.981             35.816
 Rotational               0.592              1.987             11.815
 Vibrational             10.444              1.420              0.473

 Optimization completed.
    -- Stationary point found.
 Normal termination of Gaussian 16 at Sat Oct 14 11:59:30 2017.
