 Gaussian 09, Revision D.01,

 ----------------------------------------------------------------------
 #p opt=(modredundant,maxcycles=200) pop=none b972 cc-pVDZ scrf=(solven
 t=o-xylene,smd)
 ----------------------------------------------------------------------

 -----
 title
 -----
 Symbolic Z-matrix:
 Charge =  0 Multiplicity = 1

 SCF Done:  E(RB972) =  -574.435419734     A.U. after   14 cycles
 SCF Done:  E(RB972) =  -574.435817580     A.U. after   11 cycles
 SCF Done:  E(RB972) =  -574.435750125     A.U. after   11 cycles
 SCF Done:  E(RB972) =  -574.435976940     A.U. after   10 cycles
 SCF Done:  E(RB972) =  -574.435981437     A.U. after    8 cycles
 SCF Done:  E(RB972) =  -574.435985273     A.U. after    9 cycles
 SCF Done:  E(RB972) =  -574.435986777     A.U. after    7 cycles
 SCF Done:  E(RB972) =  -574.435992870     A.U. after    9 cycles
 SCF Done:  E(RB972) =  -574.435997085     A.U. after   10 cycles
 SCF Done:  E(RB972) =  -574.436002681     A.U. after    9 cycles
 SCF Done:  E(RB972) =  -574.436199914     A.U. after   10 cycles
 SCF Done:  E(RB972) =  -574.436229182     A.U. after   10 cycles
 SCF Done:  E(RB972) =  -574.436230847     A.U. after    8 cycles
 SCF Done:  E(RB972) =  -574.436232477     A.U. after    8 cycles
 SCF Done:  E(RB972) =  -574.436232586     A.U. after    7 cycles
 SCF Done:  E(RB972) =  -574.436232818     A.U. after    7 cycles
 Optimization completed.
    -- Stationary point found.
 Normal termination of Gaussian 09 at Tue Jun 28 23:26:06 2016.
 Gaussian 09:  EM64L-G09RevD.01 24-Apr-2013

 ----------------------------------------------------------------------
 #p opt=(ts,calcfc,noeigentest,maxstep=5,nofreeze,maxcycles=100) freq=n
 oraman pop=none geom=allcheck guess=read b972 cc-pVDZ scrf=(solvent=o-
 xylene,smd)
 ----------------------------------------------------------------------

 Structure from the checkpoint file:  "checkpoint.chk"
 -----
 title
 -----
 Charge =  0 Multiplicity = 1

 SCF Done:  E(RB972) =  -574.436232818     A.U. after    1 cycles
 SCF Done:  E(RB972) =  -574.436208336     A.U. after   10 cycles
 SCF Done:  E(RB972) =  -574.436208258     A.U. after    7 cycles
 Optimization completed on the basis of negligible forces.
    -- Stationary point found.
 Normal termination of Gaussian 09 at Tue Jun 28 23:39:25 2016.

 ------------------------------------------------------------------
 #P Geom=AllCheck Guess=TCheck SCRF=Check GenChk RB972/CC-pVDZ Freq
 ------------------------------------------------------------------

 Structure from the checkpoint file:  "checkpoint.chk"
 -----
 title
 -----
 Charge =  0 Multiplicity = 1

                         Standard orientation:
 ---------------------------------------------------------------------
 Center     Atomic      Atomic             Coordinates (Angstroms)
 Number     Number       Type             X           Y           Z
 ---------------------------------------------------------------------
      1          6           0        1.779322   -0.543060   -0.121409
      2          6           0        1.706490   -0.001423    1.156567
      3          6           0        0.960189   -1.650608   -0.446120
      4          6           0        0.085453   -2.227184    0.450471
      5          6           0       -1.253867   -0.425231    1.018151
      6          6           0       -0.410447    0.640467    1.317315
      7          1           0        1.482747   -0.633396    2.013805
      8          1           0        0.873797   -1.922104   -1.501096
      9          1           0        0.285735   -2.224207    1.520291
     10          1           0       -0.624447   -2.981450    0.108569
     11          6           0        2.523408    0.163698   -1.221307
     12          1           0        2.972760    1.099825   -0.870792
     13          1           0        3.335381   -0.473981   -1.602931
     14          1           0        1.869002    0.393486   -2.073968
     15          1           0        2.252270    0.914680    1.387253
     16          1           0       -0.203934    1.038006    2.306726
     17          1           0       -1.786408   -1.054891    1.724159
     18          6           0       -0.421997    1.542280    0.143965
     19          8           0        0.057838    2.629132   -0.014676
     20          8           0       -1.141033    0.918736   -0.862677
     21          6           0       -1.781857   -0.203477   -0.336584
     22          8           0       -2.613940   -0.788961   -0.969935
 ---------------------------------------------------------------------

 SCF Done:  E(RB972) =  -574.436208258     A.U. after    1 cycles

 Isotropic polarizability for W=    0.000000      128.35 Bohr**3.
 End of Minotr F.D. properties file   721 does not exist.

 ******    1 imaginary frequencies (negative Signs) ******

                      1                      2                      3
                      A                      A                      A
 Frequencies --   -448.3082                49.7252                59.8469
 Red. masses --      8.1197                 4.4641                 1.1196
 Frc consts  --      0.9615                 0.0065                 0.0024
 IR Inten    --      6.8747                 2.3894                 1.5564

                      4                      5                      6
                      A                      A                      A
 Frequencies --     98.5308               131.1500               153.3359
 Red. masses --      3.9119                 4.9686                 6.8718
 Frc consts  --      0.0224                 0.0504                 0.0952
 IR Inten    --      2.3417                 1.8251                 2.6398

                      7                      8                      9
                      A                      A                      A
 Frequencies --    173.7660               193.5793               319.5423
 Red. masses --     15.2096                 4.1097                 2.5751
 Frc consts  --      0.2706                 0.0907                 0.1549
 IR Inten    --      3.7042                 0.4636                 3.1524

                     10                     11                     12
                      A                      A                      A
 Frequencies --    356.3407               409.1216               411.7480
 Red. masses --      2.9779                 9.4533                 6.3673
 Frc consts  --      0.2228                 0.9323                 0.6360
 IR Inten    --      3.0324                11.7389                10.0284

                     13                     14                     15
                      A                      A                      A
 Frequencies --    431.4426               537.2297               547.3242
 Red. masses --      2.3653                 2.4996                 2.1695
 Frc consts  --      0.2594                 0.4250                 0.3829
 IR Inten    --      1.3148                 0.4233                16.8364

                     16                     17                     18
                      A                      A                      A
 Frequencies --    599.6285               627.5097               718.1438
 Red. masses --      4.5804                 9.9502                 7.6659
 Frc consts  --      0.9703                 2.3085                 2.3294
 IR Inten    --      8.6495                 5.1275                36.0479

                     19                     20                     21
                      A                      A                      A
 Frequencies --    744.6113               755.2351               771.1312
 Red. masses --      3.9664                 1.5290                 2.6508
 Frc consts  --      1.2957                 0.5138                 0.9287
 IR Inten    --     10.9072                 4.6162                 1.6856

                     22                     23                     24
                      A                      A                      A
 Frequencies --    786.1617               823.3597               856.5339
 Red. masses --      1.9583                 1.2303                 2.0505
 Frc consts  --      0.7131                 0.4914                 0.8863
 IR Inten    --      1.7606                 0.4707                 3.5090

                     25                     26                     27
                      A                      A                      A
 Frequencies --    894.4067               914.7929               928.2233
 Red. masses --      3.2291                 3.3382                 1.7859
 Frc consts  --      1.5220                 1.6459                 0.9066
 IR Inten    --     78.9862                86.6880                39.9242

                     28                     29                     30
                      A                      A                      A
 Frequencies --    979.2531               992.9727              1008.4046
 Red. masses --      1.3059                 1.3296                 1.1875
 Frc consts  --      0.7378                 0.7724                 0.7115
 IR Inten    --     44.0714                 4.2477                 6.9941

                     31                     32                     33
                      A                      A                      A
 Frequencies --   1014.4583              1022.5754              1052.6793
 Red. masses --      1.2707                 1.3599                 1.2444
 Frc consts  --      0.7705                 0.8378                 0.8125
 IR Inten    --     14.3945                10.8218                13.2481

                     34                     35                     36
                      A                      A                      A
 Frequencies --   1053.4551              1076.4016              1104.9597
 Red. masses --      1.4782                 2.0782                 1.5735
 Frc consts  --      0.9665                 1.4187                 1.1319
 IR Inten    --      4.3340                50.6901                 0.8951

                     37                     38                     39
                      A                      A                      A
 Frequencies --   1285.5298              1286.6953              1301.3720
 Red. masses --      1.6626                 3.6633                 2.4365
 Frc consts  --      1.6188                 3.5733                 2.4312
 IR Inten    --     55.3161               226.3544                 9.1610

                     40                     41                     42
                      A                      A                      A
 Frequencies --   1325.8343              1392.0937              1402.1714
 Red. masses --      2.0565                 1.2996                 1.4454
 Frc consts  --      2.1299                 1.4838                 1.6744
 IR Inten    --      1.1014                 8.0743                 7.4958

                     43                     44                     45
                      A                      A                      A
 Frequencies --   1449.2276              1453.1196              1460.8140
 Red. masses --      1.0840                 1.8530                 1.3853
 Frc consts  --      1.3414                 2.3053                 1.7417
 IR Inten    --     10.7144                22.6851                 9.0548

                     46                     47                     48
                      A                      A                      A
 Frequencies --   1491.9603              1580.7359              1613.7389
 Red. masses --      1.4907                 3.2312                 3.5491
 Frc consts  --      1.9550                 4.7570                 5.4454
 IR Inten    --     22.4295                 8.8662                21.5795

                     49                     50                     51
                      A                      A                      A
 Frequencies --   1859.0558              1921.3444              3064.7468
 Red. masses --     12.7759                12.6053                 1.0397
 Frc consts  --     26.0152                27.4166                 5.7540
 IR Inten    --    809.9608               353.3211                18.4215

                     52                     53                     54
                      A                      A                      A
 Frequencies --   3139.2069              3177.4334              3180.3453
 Red. masses --      1.0998                 1.0928                 1.0673
 Frc consts  --      6.3856                 6.5007                 6.3604
 IR Inten    --      7.0226                 6.6000                 9.5232

                     55                     56                     57
                      A                      A                      A
 Frequencies --   3184.4927              3196.8344              3266.1869
 Red. masses --      1.0595                 1.0907                 1.0913
 Frc consts  --      6.3303                 6.5671                 6.8595
 IR Inten    --      3.1201                 5.2990                 0.1999

                     58                     59                     60
                      A                      A                      A
 Frequencies --   3277.8740              3283.0063              3285.4199
 Red. masses --      1.1150                 1.1085                 1.1099
 Frc consts  --      7.0583                 7.0391                 7.0584
 IR Inten    --      2.5310                 2.7771                 1.9042

 - Thermochemistry -
 -------------------
 Temperature   298.150 Kelvin.  Pressure   1.00000 Atm.
 Atom     1 has atomic number  6 and mass  12.00000

 Molecular mass:   166.06299 amu.
 Principal axes and moments of inertia in atomic units:
                           1         2         3
     Eigenvalues --  1484.118551836.240422413.18650
           X            0.99832   0.04343  -0.03831
           Y           -0.04382   0.99899  -0.00943
           Z            0.03787   0.01110   0.99922
 This molecule is an asymmetric top.
 Rotational symmetry number  1.
 Warning -- assumption of classical behavior for rotation
           may cause significant error
 Rotational temperatures (Kelvin)      0.05836     0.04717     0.03589
 Rotational constants (GHZ):           1.21604     0.98285     0.74787
    1 imaginary frequencies ignored.
 Zero-point vibrational energy     451451.6 (Joules/Mol)
                                  107.89953 (Kcal/Mol)
 Warning -- explicit consideration of  15 degrees of freedom as
           vibrations may cause significant error
 Vibrational temperatures:     71.54    86.11   141.76   188.70   220.62
          (Kelvin)            250.01   278.52   459.75   512.69   588.63
                              592.41   620.75   772.95   787.48   862.73
                              902.85  1033.25  1071.33  1086.61  1109.48
                             1131.11  1184.63  1232.36  1286.85  1316.18
                             1335.50  1408.93  1428.66  1450.87  1459.58
                             1471.26  1514.57  1515.69  1548.70  1589.79
                             1849.59  1851.27  1872.38  1907.58  2002.91
                             2017.41  2085.11  2090.71  2101.78  2146.60
                             2274.32  2321.81  2674.76  2764.38  4409.48
                             4516.61  4571.61  4575.80  4581.77  4599.53
                             4699.31  4716.12  4723.51  4726.98

 Zero-point correction=                           0.171949 (Hartree/Particle)
 Thermal correction to Energy=                    0.183120
 Thermal correction to Enthalpy=                  0.184064
 Thermal correction to Gibbs Free Energy=         0.134410
 Sum of electronic and zero-point Energies=           -574.264259
 Sum of electronic and thermal Energies=              -574.253088
 Sum of electronic and thermal Enthalpies=            -574.252144
 Sum of electronic and thermal Free Energies=         -574.301798

                     E (Thermal)             CV                S
                      KCal/Mol        Cal/Mol-Kelvin    Cal/Mol-Kelvin
 Total                  114.910             41.872            104.505
 Electronic               0.000              0.000              0.000
 Translational            0.889              2.981             41.230
 Rotational               0.889              2.981             30.265
 Vibrational            113.132             35.910             33.010
 Vibration     1          0.595              1.978              4.828
 Vibration     2          0.597              1.973              4.462
 Vibration     3          0.604              1.950              3.483
 Vibration     4          0.612              1.922              2.929
 Vibration     5          0.619              1.899              2.630
 Vibration     6          0.627              1.875              2.394
 Vibration     7          0.635              1.849              2.193
 Vibration     8          0.705              1.636              1.312
 Vibration     9          0.732              1.562              1.138
 Vibration    10          0.773              1.450              0.930
 Vibration    11          0.776              1.445              0.920
 Vibration    12          0.792              1.402              0.854
 Vibration    13          0.892              1.168              0.571
 Vibration    14          0.903              1.146              0.550
 Vibration    15          0.958              1.033              0.450

 Optimization completed on the basis of negligible forces.
    -- Stationary point found.
 Normal termination of Gaussian 09 at Tue Jun 28 23:49:51 2016.
