 Gaussian 09, Revision D.01,

 ----------------------------------------------------------------------
 #p opt=(modredundant,maxcycles=200) pop=none b972 cc-pVDZ scrf=(solven
 t=o-xylene,pcm)
 ----------------------------------------------------------------------

 -----
 title
 -----
 Symbolic Z-matrix:
 Charge =  0 Multiplicity = 1

 SCF Done:  E(RB972) =  -574.427950238     A.U. after   14 cycles
 SCF Done:  E(RB972) =  -574.428319005     A.U. after   11 cycles
 SCF Done:  E(RB972) =  -574.428251752     A.U. after   10 cycles
 SCF Done:  E(RB972) =  -574.428380021     A.U. after   10 cycles
 SCF Done:  E(RB972) =  -574.428385875     A.U. after    9 cycles
 SCF Done:  E(RB972) =  -574.428391845     A.U. after   10 cycles
 SCF Done:  E(RB972) =  -574.428395432     A.U. after    8 cycles
 SCF Done:  E(RB972) =  -574.428401349     A.U. after    9 cycles
 SCF Done:  E(RB972) =  -574.428406246     A.U. after    8 cycles
 SCF Done:  E(RB972) =  -574.428409606     A.U. after    9 cycles
 SCF Done:  E(RB972) =  -574.428410533     A.U. after    3 cycles
 SCF Done:  E(RB972) =  -574.428317836     A.U. after   11 cycles
 SCF Done:  E(RB972) =  -574.428417598     A.U. after   11 cycles
 SCF Done:  E(RB972) =  -574.428417377     A.U. after    9 cycles
 SCF Done:  E(RB972) =  -574.428418129     A.U. after    8 cycles
 SCF Done:  E(RB972) =  -574.428418018     A.U. after    7 cycles
 SCF Done:  E(RB972) =  -574.428418100     A.U. after    7 cycles
 Optimization completed.
    -- Stationary point found.
 Normal termination of Gaussian 09 at Tue Jun 28 23:58:02 2016.
 Gaussian 09:  EM64L-G09RevD.01 24-Apr-2013

 ----------------------------------------------------------------------
 #p opt=(ts,calcfc,noeigentest,maxstep=5,nofreeze,maxcycles=100) freq=n
 oraman pop=none geom=allcheck guess=read b972 cc-pVDZ scrf=(solvent=o-
 xylene,pcm)
 ----------------------------------------------------------------------

 Structure from the checkpoint file:  "checkpoint.chk"
 -----
 title
 -----
 Charge =  0 Multiplicity = 1

 SCF Done:  E(RB972) =  -574.428418100     A.U. after    1 cycles
 SCF Done:  E(RB972) =  -574.428417310     A.U. after    9 cycles
 Optimization completed.
    -- Stationary point found.
 Normal termination of Gaussian 09 at Wed Jun 29 00:21:25 2016.

 ------------------------------------------------------------------
 #P Geom=AllCheck Guess=TCheck SCRF=Check GenChk RB972/CC-pVDZ Freq
 ------------------------------------------------------------------

 Structure from the checkpoint file:  "checkpoint.chk"
 -----
 title
 -----
 Charge =  0 Multiplicity = 1

                         Standard orientation:
 ---------------------------------------------------------------------
 Center     Atomic      Atomic             Coordinates (Angstroms)
 Number     Number       Type             X           Y           Z
 ---------------------------------------------------------------------
      1          6           0        1.757517   -0.571095   -0.124597
      2          6           0        1.702497   -0.032557    1.155589
      3          6           0        0.920087   -1.665887   -0.447784
      4          6           0        0.042785   -2.236730    0.448875
      5          6           0       -1.275283   -0.393439    1.022693
      6          6           0       -0.408387    0.651363    1.320922
      7          1           0        1.471478   -0.661281    2.012800
      8          1           0        0.824509   -1.932091   -1.502715
      9          1           0        0.237643   -2.229487    1.519209
     10          1           0       -0.682961   -2.974595    0.106208
     11          6           0        2.531798    0.123564   -1.211783
     12          1           0        2.579638    1.205873   -1.037752
     13          1           0        3.567239   -0.249272   -1.238262
     14          1           0        2.091288   -0.049226   -2.201293
     15          1           0        2.255764    0.879917    1.381942
     16          1           0       -0.190823    1.045274    2.309060
     17          1           0       -1.818900   -1.014972    1.726815
     18          6           0       -0.388420    1.546842    0.142694
     19          8           0        0.127364    2.617066   -0.019810
     20          8           0       -1.117025    0.936141   -0.865505
     21          6           0       -1.787373   -0.170549   -0.337427
     22          8           0       -2.623614   -0.744360   -0.976074
 ---------------------------------------------------------------------

 SCF Done:  E(RB972) =  -574.428417310     A.U. after    1 cycles

 Isotropic polarizability for W=    0.000000      125.81 Bohr**3.
 End of Minotr F.D. properties file   721 does not exist.

 ******    1 imaginary frequencies (negative Signs) ******

                      1                      2                      3
                      A                      A                      A
 Frequencies --   -433.4611                52.6016                77.7577
 Red. masses --      7.9054                 4.4810                 1.0737
 Frc consts  --      0.8751                 0.0073                 0.0038
 IR Inten    --      7.7041                 2.6906                 0.5432

                      4                      5                      6
                      A                      A                      A
 Frequencies --     97.2448               128.3707               154.4465
 Red. masses --      4.6943                 4.9181                 6.7029
 Frc consts  --      0.0262                 0.0478                 0.0942
 IR Inten    --      2.7887                 1.9269                 2.9080

                      7                      8                      9
                      A                      A                      A
 Frequencies --    174.3962               196.1664               323.7383
 Red. masses --     15.1596                 4.0904                 2.6067
 Frc consts  --      0.2717                 0.0927                 0.1610
 IR Inten    --      3.8780                 0.5402                 3.8686

                     10                     11                     12
                      A                      A                      A
 Frequencies --    352.9612               406.6584               413.1509
 Red. masses --      2.8406                 9.9385                 5.9431
 Frc consts  --      0.2085                 0.9683                 0.5977
 IR Inten    --      1.8088                11.9178                 9.9688

                     13                     14                     15
                      A                      A                      A
 Frequencies --    429.0912               536.2198               543.6345
 Red. masses --      2.3567                 2.4935                 2.1436
 Frc consts  --      0.2557                 0.4224                 0.3733
 IR Inten    --      0.9050                 0.1806                16.9878

                     16                     17                     18
                      A                      A                      A
 Frequencies --    595.8487               627.7232               718.8557
 Red. masses --      4.6096                10.0137                 7.3552
 Frc consts  --      0.9642                 2.3248                 2.2394
 IR Inten    --      7.6883                 4.5572                33.1584

                     19                     20                     21
                      A                      A                      A
 Frequencies --    738.2093               746.0441               770.5186
 Red. masses --      2.4840                 1.9631                 2.8842
 Frc consts  --      0.7976                 0.6437                 1.0089
 IR Inten    --     10.3180                 3.2223                 1.1469

                     22                     23                     24
                      A                      A                      A
 Frequencies --    783.5648               821.0568               847.0512
 Red. masses --      1.8088                 1.2147                 2.1175
 Frc consts  --      0.6543                 0.4825                 0.8952
 IR Inten    --      2.4444                 0.6400                 4.0779

                     25                     26                     27
                      A                      A                      A
 Frequencies --    897.9715               914.7708               929.0097
 Red. masses --      2.7579                 1.9833                 3.1444
 Frc consts  --      1.3103                 0.9778                 1.5989
 IR Inten    --     43.3438                65.8282               101.8956

                     28                     29                     30
                      A                      A                      A
 Frequencies --    970.7390               983.4823               996.2540
 Red. masses --      1.3203                 1.3401                 1.2184
 Frc consts  --      0.7331                 0.7637                 0.7125
 IR Inten    --     37.6178                 5.3286                13.9978

                     31                     32                     33
                      A                      A                      A
 Frequencies --   1006.8101              1029.1781              1050.2072
 Red. masses --      1.2363                 1.4131                 1.5079
 Frc consts  --      0.7384                 0.8819                 0.9799
 IR Inten    --      3.9684                 5.1828                13.5775

                     34                     35                     36
                      A                      A                      A
 Frequencies --   1053.0760              1077.7571              1102.4775
 Red. masses --      1.2172                 2.1821                 1.6033
 Frc consts  --      0.7953                 1.4934                 1.1481
 IR Inten    --     11.7805                59.9217                 1.6246

                     37                     38                     39
                      A                      A                      A
 Frequencies --   1284.8923              1287.1060              1299.3802
 Red. masses --      1.4440                 5.0727                 2.5404
 Frc consts  --      1.4046                 4.9513                 2.5272
 IR Inten    --     19.7490               259.0058                18.8619

                     40                     41                     42
                      A                      A                      A
 Frequencies --   1327.8886              1386.8887              1406.8018
 Red. masses --      2.0356                 1.2796                 1.4575
 Frc consts  --      2.1148                 1.4501                 1.6995
 IR Inten    --      1.8711                 3.8064                10.9356

                     43                     44                     45
                      A                      A                      A
 Frequencies --   1447.1684              1462.8793              1465.9773
 Red. masses --      1.3724                 1.3192                 1.4377
 Frc consts  --      1.6935                 1.6633                 1.8204
 IR Inten    --     19.3043                 4.0084                25.0510

                     46                     47                     48
                      A                      A                      A
 Frequencies --   1493.0563              1578.3349              1613.6509
 Red. masses --      1.4829                 3.2189                 3.6158
 Frc consts  --      1.9477                 4.7245                 5.5472
 IR Inten    --     20.9933                 7.3864                20.2125

                     49                     50                     51
                      A                      A                      A
 Frequencies --   1851.4042              1916.3630              3063.0991
 Red. masses --     12.7383                12.5736                 1.0401
 Frc consts  --     25.7255                27.2061                 5.7500
 IR Inten    --    860.9991               354.3187                20.1959

                     52                     53                     54
                      A                      A                      A
 Frequencies --   3143.3381              3175.5772              3178.0382
 Red. masses --      1.0972                 1.0969                 1.0647
 Frc consts  --      6.3876                 6.5173                 6.3355
 IR Inten    --      6.3838                 4.6753                 7.8313

                     55                     56                     57
                      A                      A                      A
 Frequencies --   3186.0270              3199.7176              3267.6676
 Red. masses --      1.0586                 1.0909                 1.0915
 Frc consts  --      6.3314                 6.5803                 6.8667
 IR Inten    --      4.7915                 6.0632                 0.1985

                     58                     59                     60
                      A                      A                      A
 Frequencies --   3277.5699              3285.0291              3287.9303
 Red. masses --      1.1156                 1.1088                 1.1092
 Frc consts  --      7.0609                 7.0501                 7.0648
 IR Inten    --      2.3461                 2.3882                 1.2517

 - Thermochemistry -
 -------------------
 Temperature   298.150 Kelvin.  Pressure   1.00000 Atm.
 Atom     1 has atomic number  6 and mass  12.00000

 Molecular mass:   166.06299 amu.
 Principal axes and moments of inertia in atomic units:
                           1         2         3
     Eigenvalues --  1482.485641834.608422409.66293
           X            0.99836   0.04271  -0.03819
           Y           -0.04306   0.99904  -0.00838
           Z            0.03780   0.01002   0.99924
 This molecule is an asymmetric top.
 Rotational symmetry number  1.
 Warning -- assumption of classical behavior for rotation
           may cause significant error
 Rotational temperatures (Kelvin)      0.05842     0.04721     0.03594
 Rotational constants (GHZ):           1.21738     0.98372     0.74896
    1 imaginary frequencies ignored.
 Zero-point vibrational energy     451188.5 (Joules/Mol)
                                  107.83664 (Kcal/Mol)
 Warning -- explicit consideration of  15 degrees of freedom as
           vibrations may cause significant error
 Vibrational temperatures:     75.68   111.88   139.91   184.70   222.21
          (Kelvin)            250.92   282.24   465.79   507.83   585.09
                              594.43   617.37   771.50   782.17   857.29
                              903.15  1034.27  1062.12  1073.39  1108.60
                             1127.37  1181.32  1218.72  1291.98  1316.15
                             1336.64  1396.68  1415.01  1433.39  1448.57
                             1480.76  1511.01  1515.14  1550.65  1586.22
                             1848.67  1851.86  1869.52  1910.53  1995.42
                             2024.07  2082.15  2104.75  2109.21  2148.17
                             2270.87  2321.68  2663.75  2757.22  4407.11
                             4522.56  4568.94  4572.48  4583.98  4603.67
                             4701.44  4715.69  4726.42  4730.59

 Zero-point correction=                           0.171849 (Hartree/Particle)
 Thermal correction to Energy=                    0.182998
 Thermal correction to Enthalpy=                  0.183942
 Thermal correction to Gibbs Free Energy=         0.134550
 Sum of electronic and zero-point Energies=           -574.256569
 Sum of electronic and thermal Energies=              -574.245420
 Sum of electronic and thermal Enthalpies=            -574.244475
 Sum of electronic and thermal Free Energies=         -574.293867

                     E (Thermal)             CV                S
                      KCal/Mol        Cal/Mol-Kelvin    Cal/Mol-Kelvin
 Total                  114.833             41.964            103.954
 Electronic               0.000              0.000              0.000
 Translational            0.889              2.981             41.230
 Rotational               0.889              2.981             30.262
 Vibrational            113.055             36.002             32.463
 Vibration     1          0.596              1.977              4.717
 Vibration     2          0.599              1.964              3.947
 Vibration     3          0.603              1.951              3.509
 Vibration     4          0.611              1.925              2.970
 Vibration     5          0.620              1.898              2.617
 Vibration     6          0.627              1.874              2.388
 Vibration     7          0.636              1.845              2.169
 Vibration     8          0.708              1.628              1.291
 Vibration     9          0.729              1.569              1.153
 Vibration    10          0.771              1.456              0.939
 Vibration    11          0.777              1.442              0.916
 Vibration    12          0.790              1.407              0.862
 Vibration    13          0.891              1.170              0.573
 Vibration    14          0.899              1.154              0.558
 Vibration    15          0.954              1.041              0.457

 Optimization completed.
    -- Stationary point found.
 Normal termination of Gaussian 09 at Wed Jun 29 00:43:39 2016.
