 Gaussian 09, Revision D.01,
 Gaussian 09:  EM64L-G09RevD.01 24-Apr-2013

 ---------------------------------------------------------------------
 #p opt freq=noraman pop=none b972 cc-pVDZ scrf=(solvent=o-xylene,smd)
 ---------------------------------------------------------------------

 -----
 title
 -----
 Symbolic Z-matrix:
 Charge =  0 Multiplicity = 1

 SCF Done:  E(RB972) =  -195.254925136     A.U. after   11 cycles
 SCF Done:  E(RB972) =  -195.255054794     A.U. after    9 cycles
 SCF Done:  E(RB972) =  -195.255059010     A.U. after    7 cycles
 Optimization completed.
    -- Stationary point found.
 Normal termination of Gaussian 09 at Tue Jun 28 22:36:39 2016.

 ------------------------------------------------------------------
 #P Geom=AllCheck Guess=TCheck SCRF=Check GenChk RB972/CC-pVDZ Freq
 ------------------------------------------------------------------

 Structure from the checkpoint file:  "checkpoint.chk"
 -----
 title
 -----
 Charge =  0 Multiplicity = 1

                         Standard orientation:
 ---------------------------------------------------------------------
 Center     Atomic      Atomic             Coordinates (Angstroms)
 Number     Number       Type             X           Y           Z
 ---------------------------------------------------------------------
      1          1           0       -0.705317   -2.193055    0.000000
      2          6           0        0.359322   -1.954397    0.000000
      3          6           0        0.817592   -0.693908    0.000000
      4          1           0        1.049793   -2.799028    0.000000
      5          6           0        0.000000    0.524734    0.000000
      6          1           0        1.899220   -0.529970    0.000000
      7          6           0        0.604742    1.727290    0.000000
      8          6           0       -1.496805    0.394552    0.000000
      9          1           0        0.031937    2.655945    0.000000
     10          1           0        1.693061    1.815503    0.000000
     11          1           0       -1.981551    1.378349    0.000000
     12          1           0       -1.848126   -0.158683    0.883906
     13          1           0       -1.848126   -0.158683   -0.883906
 ---------------------------------------------------------------------

 SCF Done:  E(RB972) =  -195.255059010     A.U. after    1 cycles

 Isotropic polarizability for W=    0.000000       68.86 Bohr**3.
 End of Minotr F.D. properties file   721 does not exist.

                      1                      2                      3
                     A"                     A"                     A'
 Frequencies --    166.5778               199.9649               271.1551
 Red. masses --      2.1008                 1.0563                 2.5540
 Frc consts  --      0.0343                 0.0249                 0.1106
 IR Inten    --      0.0697                 0.5232                 1.4095

                      4                      5                      6
                     A"                     A'                     A'
 Frequencies --    416.8205               424.8524               532.1336
 Red. masses --      1.6732                 2.1510                 2.5835
 Frc consts  --      0.1713                 0.2288                 0.4310
 IR Inten    --      9.9201                 1.6457                 0.2495

                      7                      8                      9
                     A"                     A"                     A'
 Frequencies --    646.2590               789.8907               805.2202
 Red. masses --      1.1808                 1.3768                 2.9427
 Frc consts  --      0.2906                 0.5061                 1.1241
 IR Inten    --      0.0063                 0.1531                 0.1941

                     10                     11                     12
                     A"                     A"                     A'
 Frequencies --    923.8066               936.5945               967.1615
 Red. masses --      1.3511                 1.3509                 1.6295
 Frc consts  --      0.6794                 0.6982                 0.8981
 IR Inten    --     51.7117                34.8755                 1.1922

                     13                     14                     15
                     A'                     A"                     A"
 Frequencies --   1001.3544              1034.8831              1062.0033
 Red. masses --      1.2655                 1.1616                 1.4984
 Frc consts  --      0.7476                 0.7330                 0.9957
 IR Inten    --      0.5564                18.6865                 0.0303

                     16                     17                     18
                     A'                     A'                     A'
 Frequencies --   1079.8642              1310.6493              1331.0961
 Red. masses --      1.4977                 1.2245                 2.1227
 Frc consts  --      1.0290                 1.2393                 2.2160
 IR Inten    --      8.3447                 0.0717                 1.7374

                     19                     20                     21
                     A'                     A'                     A'
 Frequencies --   1395.8674              1421.2013              1436.2964
 Red. masses --      1.2476                 1.4742                 1.2129
 Frc consts  --      1.4322                 1.7543                 1.4742
 IR Inten    --      5.5501                 2.0383                 5.4584

                     22                     23                     24
                     A"                     A'                     A'
 Frequencies --   1448.2642              1470.0322              1677.7169
 Red. masses --      1.0392                 1.0867                 4.7655
 Frc consts  --      1.2842                 1.3836                 7.9031
 IR Inten    --      8.8777                 6.9896                35.3100

                     25                     26                     27
                     A'                     A'                     A"
 Frequencies --   1724.3007              3057.9876              3130.7350
 Red. masses --      5.4446                 1.0388                 1.1004
 Frc consts  --      9.5377                 5.7233                 6.3548
 IR Inten    --      3.1160                25.7644                17.1161

                     28                     29                     30
                     A'                     A'                     A'
 Frequencies --   3165.7680              3166.5845              3171.5485
 Red. masses --      1.0655                 1.0979                 1.0653
 Frc consts  --      6.2914                 6.4865                 6.3135
 IR Inten    --      1.2334                22.2899                14.6167

                     31                     32                     33
                     A'                     A'                     A'
 Frequencies --   3183.9018              3264.4930              3272.0853
 Red. masses --      1.0862                 1.1163                 1.1159
 Frc consts  --      6.4876                 7.0090                 7.0390
 IR Inten    --      7.2965                12.2570                12.5709

 - Thermochemistry -
 -------------------
 Temperature   298.150 Kelvin.  Pressure   1.00000 Atm.
 Atom     1 has atomic number  1 and mass   1.00783

 Molecular mass:    68.06260 amu.
 Principal axes and moments of inertia in atomic units:
                           1         2         3
     Eigenvalues --   211.70228 434.45419 634.90899
           X           -0.18232   0.98324   0.00000
           Y            0.98324   0.18232   0.00000
           Z            0.00000   0.00000   1.00000
 This molecule is an asymmetric top.
 Rotational symmetry number  1.
 Rotational temperatures (Kelvin)      0.40913     0.19936     0.13642
 Rotational constants (GHZ):           8.52490     4.15404     2.84252
 Zero-point vibrational energy     298390.9 (Joules/Mol)
                                   71.31715 (Kcal/Mol)
 Warning -- explicit consideration of   6 degrees of freedom as
           vibrations may cause significant error
 Vibrational temperatures:    239.67   287.70   390.13   599.71   611.27
          (Kelvin)            765.62   929.82  1136.48  1158.53  1329.15
                             1347.55  1391.53  1440.72  1488.96  1527.98
                             1553.68  1885.73  1915.15  2008.34  2044.79
                             2066.51  2083.73  2115.05  2413.86  2480.88
                             4399.76  4504.42  4554.83  4556.00  4563.15
                             4580.92  4696.87  4707.80

 Zero-point correction=                           0.113651 (Hartree/Particle)
 Thermal correction to Energy=                    0.119512
 Thermal correction to Enthalpy=                  0.120457
 Thermal correction to Gibbs Free Energy=         0.085153
 Sum of electronic and zero-point Energies=           -195.141408
 Sum of electronic and thermal Energies=              -195.135547
 Sum of electronic and thermal Enthalpies=            -195.134603
 Sum of electronic and thermal Free Energies=         -195.169906

                     E (Thermal)             CV                S
                      KCal/Mol        Cal/Mol-Kelvin    Cal/Mol-Kelvin
 Total                   74.995             21.171             74.302
 Electronic               0.000              0.000              0.000
 Translational            0.889              2.981             38.571
 Rotational               0.889              2.981             25.571
 Vibrational             73.218             15.209             10.160
 Vibration     1          0.624              1.884              2.474
 Vibration     2          0.638              1.840              2.133
 Vibration     3          0.675              1.726              1.589
 Vibration     4          0.780              1.434              0.903
 Vibration     5          0.787              1.416              0.876
 Vibration     6          0.887              1.179              0.582

 Optimization completed.
    -- Stationary point found.
 Normal termination of Gaussian 09 at Tue Jun 28 22:39:08 2016.
