                         Program Version 4.2.1 -  RELEASE  -
|  1> !B3LYP 6-31G* RIJCOSX def2/J Freq
|  2> !pal4
|  3> *xyzfile 0 1 claisen_gs.xyz
|  4>
|  5>                          ****END OF INPUT****

CARTESIAN COORDINATES (ANGSTROEM)
---------------------------------
  C      2.533366    0.354528   -0.000003
  C      1.645119   -0.643361   -0.000007
  O      0.289757   -0.572633   -0.000001
  C     -0.300955    0.716222   -0.000005
  C     -1.797864    0.595382   -0.000005
  C     -2.478428   -0.549716   -0.000009
  H      3.589823    0.107677   -0.000008
  H      2.263112    1.404966    0.000008
  H      1.954434   -1.685673   -0.000016
  H      0.038878    1.281578   -0.884124
  H      0.038876    1.281582    0.884111
  H     -2.323822    1.550451    0.000000
  H     -3.565344   -0.560946   -0.000007
  H     -1.969201   -1.507986   -0.000015

 Total Charge           Charge          ....    0
 Multiplicity           Mult            ....    1
 Number of Electrons    NEL             ....   46
 Basis Dimension        Dim             ....  100

ORBITAL ENERGIES
----------------

  NO   OCC          E(Eh)            E(eV)
   0   2.0000     -19.169439      -521.6270
   1   2.0000     -10.236241      -278.5423
   2   2.0000     -10.230007      -278.3726
   3   2.0000     -10.183725      -277.1132
   4   2.0000     -10.167956      -276.6842
   5   2.0000     -10.157822      -276.4084
   6   2.0000      -1.061394       -28.8820
   7   2.0000      -0.791778       -21.5454
   8   2.0000      -0.737708       -20.0740
   9   2.0000      -0.689978       -18.7753
  10   2.0000      -0.593290       -16.1442
  11   2.0000      -0.534974       -14.5574
  12   2.0000      -0.509926       -13.8758
  13   2.0000      -0.469509       -12.7760
  14   2.0000      -0.468488       -12.7482
  15   2.0000      -0.442516       -12.0415
  16   2.0000      -0.407254       -11.0820
  17   2.0000      -0.377610       -10.2753
  18   2.0000      -0.349825        -9.5192
  19   2.0000      -0.345406        -9.3990
  20   2.0000      -0.332223        -9.0402
  21   2.0000      -0.253404        -6.8955
  22   2.0000      -0.223795        -6.0898
  23   0.0000       0.024436         0.6649
  24   0.0000       0.045778         1.2457
  25   0.0000       0.103194         2.8081
  26   0.0000       0.120085         3.2677
  27   0.0000       0.130809         3.5595

MULLIKEN ATOMIC CHARGES
-----------------------
   0 C :   -0.401600
   1 C :    0.160066
   2 O :   -0.440778
   3 C :   -0.053418
   4 C :   -0.095801
   5 C :   -0.316469
   6 H :    0.142126
   7 H :    0.141866
   8 H :    0.138515
   9 H :    0.149226
  10 H :    0.149226
  11 H :    0.129238
  12 H :    0.140139
  13 H :    0.157662
Sum of atomic charges:   -0.0000000

LOEWDIN ATOMIC CHARGES
----------------------
   0 C :   -0.367597
   1 C :   -0.023144
   2 O :   -0.158206
   3 C :   -0.090928
   4 C :   -0.142609
   5 C :   -0.265782
   6 H :    0.139369
   7 H :    0.131460
   8 H :    0.130252
   9 H :    0.123251
  10 H :    0.123250
  11 H :    0.130215
  12 H :    0.131395
  13 H :    0.139073

  Mayer bond orders larger than 0.100000
B(  0-C ,  1-C ) :   1.8642 B(  0-C ,  6-H ) :   0.9342 B(  0-C ,  7-H ) :   0.9337
B(  1-C ,  2-O ) :   1.0499 B(  1-C ,  8-H ) :   0.9405 B(  2-O ,  3-C ) :   0.9067
B(  3-C ,  4-C ) :   1.0270 B(  3-C ,  9-H ) :   0.9074 B(  3-C , 10-H ) :   0.9074
B(  4-C ,  5-C ) :   2.0025 B(  4-C , 11-H ) :   0.9300 B(  5-C , 12-H ) :   0.9369
B(  5-C , 13-H ) :   0.9275

FINAL SINGLE POINT ENERGY      -270.333353689954

DIPOLE MOMENT
-------------
                                X             Y             Z
Electronic contribution:     -0.08420      -1.56032       0.00001
Nuclear contribution   :      0.04072       1.88989      -0.00001
                        -----------------------------------------
Total Dipole Moment    :     -0.04348       0.32957      -0.00000
                        -----------------------------------------
Magnitude (a.u.)       :      0.33243
Magnitude (Debye)      :      0.84496

VIBRATIONAL FREQUENCIES
-----------------------

Scaling factor for frequencies =  1.000000000  (already applied!)

   0:         0.00 cm**-1
   1:         0.00 cm**-1
   2:         0.00 cm**-1
   3:         0.00 cm**-1
   4:         0.00 cm**-1
   5:         0.00 cm**-1
   6:        60.55 cm**-1
   7:       166.49 cm**-1
   8:       185.11 cm**-1
   9:       252.64 cm**-1
  10:       285.56 cm**-1
  11:       554.36 cm**-1
  12:       572.87 cm**-1
  13:       619.71 cm**-1
  14:       717.34 cm**-1
  15:       822.94 cm**-1
  16:       934.99 cm**-1
  17:       946.80 cm**-1
  18:       955.43 cm**-1
  19:       995.64 cm**-1
  20:      1028.72 cm**-1
  21:      1042.20 cm**-1
  22:      1056.15 cm**-1
  23:      1123.74 cm**-1
  24:      1258.92 cm**-1
  25:      1269.87 cm**-1
  26:      1331.36 cm**-1
  27:      1373.90 cm**-1
  28:      1426.85 cm**-1
  29:      1464.59 cm**-1
  30:      1467.91 cm**-1
  31:      1528.85 cm**-1
  32:      1715.33 cm**-1
  33:      1739.94 cm**-1
  34:      2983.93 cm**-1
  35:      3006.22 cm**-1
  36:      3156.19 cm**-1
  37:      3176.39 cm**-1
  38:      3185.35 cm**-1
  39:      3204.45 cm**-1
  40:      3259.20 cm**-1
  41:      3269.11 cm**-1

IR SPECTRUM
-----------

 Mode    freq (cm**-1)   T**2         TX         TY         TZ
-------------------------------------------------------------------
   6:        60.55    0.254006  (  0.000052   0.000078   0.503990)
   7:       166.49    0.051926  (  0.000072   0.000060  -0.227872)
   8:       185.11    0.273636  ( -0.432971  -0.293552  -0.000031)
   9:       252.64    7.206979  (  0.000088   0.000113  -2.684582)
  10:       285.56    1.594152  ( -1.195142   0.407170   0.000067)
  11:       554.36    1.927764  (  0.257083  -1.364431   0.000066)
  12:       572.87    8.802124  (  0.000032   0.000011  -2.966837)
  13:       619.71    0.167595  ( -0.152004  -0.380119  -0.000001)
  14:       717.34    0.697191  ( -0.000107  -0.000150   0.834979)
  15:       822.94   59.011206  ( -0.000059   0.000024  -7.681875)
  16:       934.99    1.894270  (  0.957033  -0.989120  -0.000004)
  17:       946.80   32.940682  ( -0.000015   0.000033  -5.739397)
  18:       955.43   12.480198  ( -1.294990  -3.286822   0.000006)
  19:       995.64   11.811624  (  0.000202   0.000251   3.436804)
  20:      1028.72    9.700000  (  0.000059   0.000101   3.114482)
  21:      1042.20   41.767940  (  6.278011  -1.534442  -0.000025)
  22:      1056.15   10.835035  (  0.000082  -0.000029   3.291661)
  23:      1123.74   15.760450  (  2.251945   3.269433   0.000007)
  24:      1258.92  192.466694  (-13.496135   3.212638   0.000032)
  25:      1269.87    0.641568  (  0.000243  -0.000109   0.800980)
  26:      1331.36    3.791262  ( -1.945783  -0.072053  -0.000001)
  27:      1373.90   58.508133  (  7.598781  -0.875595   0.000003)
  28:      1426.85   25.220084  ( -5.006791  -0.390030  -0.000008)
  29:      1464.59    5.554959  ( -1.335294  -1.942151  -0.000012)
  30:      1467.91    5.048786  ( -1.856540   1.265719   0.000015)
  31:      1528.85   14.615991  (  3.819138   0.173706   0.000005)
  32:      1715.33  164.731455  (-12.223990  -3.912228  -0.000015)
  33:      1739.94    2.456895  ( -1.412278   0.679975  -0.000000)
  34:      2983.93   24.189608  ( -0.190063  -4.914619  -0.000347)
  35:      3006.22   44.163349  ( -0.000009  -0.000234   6.645551)
  36:      3156.19   14.843849  ( -1.217272   3.655420   0.000015)
  37:      3176.39   10.166356  ( -3.172519   0.318561   0.000002)
  38:      3185.35    4.903251  (  0.934046  -2.007688  -0.000015)
  39:      3204.45   11.939210  ( -1.863841   2.909520   0.000021)
  40:      3259.20   11.376285  ( -3.110437   1.304403   0.000010)
  41:      3269.11   13.597844  ( -3.022207   2.112843   0.000023)

--------------------------
THERMOCHEMISTRY AT 298.15K
--------------------------

Temperature         ... 298.15 K
Pressure            ... 1.00 atm
Total Mass          ... 84.12 AMU

Throughout the following assumptions are being made:
  (1) The electronic state is orbitally nondegenerate
  (2) There are no thermally accessible electronically excited states
  (3) Hindered rotations indicated by low frequency modes are not
      treated as such but are treated as vibrations and this may
      cause some error
  (4) All equations used are the standard statistical mechanics
      equations for an ideal gas
  (5) All vibrations are strictly harmonic

freq.      60.55  E(vib)   ...       0.51
freq.     166.49  E(vib)   ...       0.39
freq.     185.11  E(vib)   ...       0.37
freq.     252.64  E(vib)   ...       0.30
freq.     285.56  E(vib)   ...       0.28
freq.     554.36  E(vib)   ...       0.12
freq.     572.87  E(vib)   ...       0.11
freq.     619.71  E(vib)   ...       0.09
freq.     717.34  E(vib)   ...       0.07
freq.     822.94  E(vib)   ...       0.05
freq.     934.99  E(vib)   ...       0.03
freq.     946.80  E(vib)   ...       0.03
freq.     955.43  E(vib)   ...       0.03
freq.     995.64  E(vib)   ...       0.02
freq.    1028.72  E(vib)   ...       0.02
freq.    1042.20  E(vib)   ...       0.02
freq.    1056.15  E(vib)   ...       0.02
freq.    1123.74  E(vib)   ...       0.01
freq.    1258.92  E(vib)   ...       0.01
freq.    1269.87  E(vib)   ...       0.01
freq.    1331.36  E(vib)   ...       0.01
freq.    1373.90  E(vib)   ...       0.01
freq.    1426.85  E(vib)   ...       0.00
freq.    1464.59  E(vib)   ...       0.00
freq.    1467.91  E(vib)   ...       0.00
freq.    1528.85  E(vib)   ...       0.00
freq.    1715.33  E(vib)   ...       0.00
freq.    1739.94  E(vib)   ...       0.00
freq.    2983.93  E(vib)   ...       0.00
freq.    3006.22  E(vib)   ...       0.00
freq.    3156.19  E(vib)   ...       0.00
freq.    3176.39  E(vib)   ...       0.00
freq.    3185.35  E(vib)   ...       0.00
freq.    3204.45  E(vib)   ...       0.00
freq.    3259.20  E(vib)   ...       0.00
freq.    3269.11  E(vib)   ...       0.00

------------
INNER ENERGY
------------

The inner energy is: U= E(el) + E(ZPE) + E(vib) + E(rot) + E(trans)
    E(el)   - is the total energy from the electronic structure calculation
              = E(kin-el) + E(nuc-el) + E(el-el) + E(nuc-nuc)
    E(ZPE)  - the the zero temperature vibrational energy from the frequency calculation
    E(vib)  - the the finite temperature correction to E(ZPE) due to population
              of excited vibrational states
    E(rot)  - is the rotational thermal energy
    E(trans)- is the translational thermal energy

Summary of contributions to the inner energy U:
Electronic energy                ...   -270.33335369 Eh
Zero point energy                ...      0.11878275 Eh      74.54 kcal/mol
Thermal vibrational correction   ...      0.00398417 Eh       2.50 kcal/mol
Thermal rotational correction    ...      0.00141627 Eh       0.89 kcal/mol
Thermal translational correction ...      0.00141627 Eh       0.89 kcal/mol
-----------------------------------------------------------------------
Total thermal energy                   -270.20775423 Eh

Summary of corrections to the electronic energy:
(perhaps to be used in another calculation)
Total thermal correction                  0.00681671 Eh       4.28 kcal/mol
Non-thermal (ZPE) correction              0.11878275 Eh      74.54 kcal/mol
-----------------------------------------------------------------------
Total correction                          0.12559946 Eh      78.81 kcal/mol

--------
ENTHALPY
--------

The enthalpy is H = U + kB*T
                kB is Boltzmann's constant
Total free energy                 ...   -270.20775423 Eh
Thermal Enthalpy correction       ...      0.00094421 Eh       0.59 kcal/mol
-----------------------------------------------------------------------
Total Enthalpy                    ...   -270.20681002 Eh

Note: Only C1 symmetry has been detected, increase convergence thresholds
      if your molecule has a higher symmetry. Symmetry factor of 1.0 is
      used for the rotational entropy correction.

Note: Rotational entropy computed according to Herzberg
Infrared and Raman Spectra, Chapter V,1, Van Nostrand Reinhold, 1945
Point Group:  C1, Symmetry Number:   1
Rotational constants in cm-1:     0.416084     0.062346     0.054777

Vibrational entropy computed according to the QRRHO of S. Grimme
Chem.Eur.J. 2012 18 9955

-------
ENTROPY
-------

The entropy contributions are T*S = T*(S(el)+S(vib)+S(rot)+S(trans))
     S(el)   - electronic entropy
     S(vib)  - vibrational entropy
     S(rot)  - rotational entropy
     S(trans)- translational entropy
The entropies will be listed as mutliplied by the temperature to get
units of energy

Electronic entropy                ...      0.00000000 Eh      0.00 kcal/mol
Vibrational entropy               ...      0.00678266 Eh      4.26 kcal/mol
Rotational entropy                ...      0.01260603 Eh      7.91 kcal/mol
Translational entropy             ...      0.01862630 Eh     11.69 kcal/mol
-----------------------------------------------------------------------
Final entropy term                ...      0.03801499 Eh     23.85 kcal/mol

In case the symmetry of your molecule has not been determined correctly
or in case you have a reason to use a different symmetry number we print
out the resulting rotational entropy values for sn=1,12 :
 --------------------------------------------------------
|  sn= 1 | S(rot)=       0.01260603 Eh      7.91 kcal/mol|
|  sn= 2 | S(rot)=       0.01195158 Eh      7.50 kcal/mol|
|  sn= 3 | S(rot)=       0.01156874 Eh      7.26 kcal/mol|
|  sn= 4 | S(rot)=       0.01129712 Eh      7.09 kcal/mol|
|  sn= 5 | S(rot)=       0.01108643 Eh      6.96 kcal/mol|
|  sn= 6 | S(rot)=       0.01091429 Eh      6.85 kcal/mol|
|  sn= 7 | S(rot)=       0.01076874 Eh      6.76 kcal/mol|
|  sn= 8 | S(rot)=       0.01064266 Eh      6.68 kcal/mol|
|  sn= 9 | S(rot)=       0.01053145 Eh      6.61 kcal/mol|
|  sn=10 | S(rot)=       0.01043198 Eh      6.55 kcal/mol|
|  sn=11 | S(rot)=       0.01034199 Eh      6.49 kcal/mol|
|  sn=12 | S(rot)=       0.01025983 Eh      6.44 kcal/mol|
 --------------------------------------------------------

-------------------
GIBBS FREE ENERGY
-------------------

The Gibbs free energy is G = H - T*S

Total enthalpy                    ...   -270.20681002 Eh
Total entropy correction          ...     -0.03801499 Eh    -23.85 kcal/mol
-----------------------------------------------------------------------
Final Gibbs free energy         ...   -270.24482501 Eh

For completeness - the Gibbs free energy minus the electronic energy

                             ****ORCA TERMINATED NORMALLY****
TOTAL RUN TIME: 0 days 0 hours 0 minutes 57 seconds 964 msec
