                         Program Version 4.2.1 -  RELEASE  -
|  1> !B3LYP 6-31G* RIJCOSX def2/J Freq
|  2> !pal4
|  3> *xyzfile 0 1 claisen_ts.xyz
|  4>
|  5>                          ****END OF INPUT****

CARTESIAN COORDINATES (ANGSTROEM)
---------------------------------
  C     -1.474032    0.786774   -0.283331
  C     -1.296078   -0.476777    0.256320
  O     -0.512902   -1.359242   -0.257853
  C      1.291759   -0.901845    0.187721
  C      1.379160    0.410519   -0.300035
  C      0.673744    1.429519    0.315326
  H     -2.153042    1.487010    0.198833
  H     -1.239230    0.973314   -1.325004
  H     -1.694692   -0.663780    1.269444
  H      1.774509   -1.712494   -0.347055
  H      1.175597   -1.072994    1.253923
  H      1.706592    0.552626   -1.328300
  H      0.639070    2.423886   -0.122641
  H      0.448795    1.383584    1.376553

 Total Charge           Charge          ....    0
 Multiplicity           Mult            ....    1
 Number of Electrons    NEL             ....   46
 Basis Dimension        Dim             ....  100

ORBITAL ENERGIES
----------------

  NO   OCC          E(Eh)            E(eV)
   0   2.0000     -19.125886      -520.4418
   1   2.0000     -10.220380      -278.1107
   2   2.0000     -10.212591      -277.8987
   3   2.0000     -10.201078      -277.5854
   4   2.0000     -10.176308      -276.9114
   5   2.0000     -10.175006      -276.8760
   6   2.0000      -0.997450       -27.1420
   7   2.0000      -0.793422       -21.5901
   8   2.0000      -0.728170       -19.8145
   9   2.0000      -0.670745       -18.2519
  10   2.0000      -0.564576       -15.3629
  11   2.0000      -0.550274       -14.9737
  12   2.0000      -0.482483       -13.1290
  13   2.0000      -0.455840       -12.4040
  14   2.0000      -0.439139       -11.9496
  15   2.0000      -0.427333       -11.6283
  16   2.0000      -0.391268       -10.6469
  17   2.0000      -0.382055       -10.3962
  18   2.0000      -0.366966        -9.9857
  19   2.0000      -0.362027        -9.8513
  20   2.0000      -0.267850        -7.2886
  21   2.0000      -0.248364        -6.7583
  22   2.0000      -0.218672        -5.9504
  23   0.0000      -0.025375        -0.6905
  24   0.0000       0.014268         0.3883
  25   0.0000       0.093956         2.5567
  26   0.0000       0.111728         3.0403
  27   0.0000       0.121893         3.3169

MULLIKEN ATOMIC CHARGES
-----------------------
   0 C :   -0.352996
   1 C :    0.198844
   2 O :   -0.444807
   3 C :   -0.208965
   4 C :   -0.042405
   5 C :   -0.323250
   6 H :    0.139824
   7 H :    0.162226
   8 H :    0.087391
   9 H :    0.169111
  10 H :    0.164436
  11 H :    0.129947
  12 H :    0.158439
  13 H :    0.162204
Sum of atomic charges:    0.0000000

LOEWDIN ATOMIC CHARGES
----------------------
   0 C :   -0.284060
   1 C :   -0.027371
   2 O :   -0.238644
   3 C :   -0.114511
   4 C :   -0.186415
   5 C :   -0.196320
   6 H :    0.131124
   7 H :    0.139935
   8 H :    0.090144
   9 H :    0.143679
  10 H :    0.137602
  11 H :    0.130040
  12 H :    0.138056
  13 H :    0.136741

  Mayer bond orders larger than 0.100000
B(  0-C ,  1-C ) :   1.4866 B(  0-C ,  3-C ) :   0.1150 B(  0-C ,  5-C ) :   0.3431
B(  0-C ,  6-H ) :   0.9301 B(  0-C ,  7-H ) :   0.9328 B(  1-C ,  2-O ) :   1.4141
B(  1-C ,  8-H ) :   0.9150 B(  2-O ,  3-C ) :   0.4467 B(  3-C ,  4-C ) :   1.3837
B(  3-C ,  9-H ) :   0.9367 B(  3-C , 10-H ) :   0.9329 B(  4-C ,  5-C ) :   1.5285
B(  4-C , 11-H ) :   0.9361 B(  5-C , 12-H ) :   0.9348 B(  5-C , 13-H ) :   0.9342

FINAL SINGLE POINT ENERGY      -270.287001804044

DIPOLE MOMENT
-------------
                                X             Y             Z
Electronic contribution:     -0.37298      -2.74404      -0.68829
Nuclear contribution   :      0.66676       3.44270       1.00351
                        -----------------------------------------
Total Dipole Moment    :      0.29378       0.69865       0.31522
                        -----------------------------------------
Magnitude (a.u.)       :      0.82084
Magnitude (Debye)      :      2.08641

VIBRATIONAL FREQUENCIES
-----------------------

Scaling factor for frequencies =  1.000000000  (already applied!)

   0:         0.00 cm**-1
   1:         0.00 cm**-1
   2:         0.00 cm**-1
   3:         0.00 cm**-1
   4:         0.00 cm**-1
   5:         0.00 cm**-1
   6:      -480.16 cm**-1 ***imaginary mode***
   7:       168.46 cm**-1
   8:       265.29 cm**-1
   9:       309.87 cm**-1
  10:       377.47 cm**-1
  11:       423.98 cm**-1
  12:       461.15 cm**-1
  13:       527.42 cm**-1
  14:       736.41 cm**-1
  15:       805.33 cm**-1
  16:       874.32 cm**-1
  17:       891.39 cm**-1
  18:       961.00 cm**-1
  19:       996.67 cm**-1
  20:      1001.60 cm**-1
  21:      1009.65 cm**-1
  22:      1036.18 cm**-1
  23:      1055.42 cm**-1
  24:      1086.54 cm**-1
  25:      1266.41 cm**-1
  26:      1273.76 cm**-1
  27:      1301.54 cm**-1
  28:      1361.25 cm**-1
  29:      1451.34 cm**-1
  30:      1491.42 cm**-1
  31:      1549.86 cm**-1
  32:      1563.32 cm**-1
  33:      1637.00 cm**-1
  34:      2988.72 cm**-1
  35:      3165.77 cm**-1
  36:      3167.28 cm**-1
  37:      3173.77 cm**-1
  38:      3177.38 cm**-1
  39:      3250.59 cm**-1
  40:      3263.56 cm**-1
  41:      3263.98 cm**-1

IR SPECTRUM
-----------

 Mode    freq (cm**-1)   T**2         TX         TY         TZ
-------------------------------------------------------------------
   7:       168.46    2.908305  (  0.175423   0.904443  -1.435101)
   8:       265.29   19.562554  ( -3.993879  -1.864445  -0.367870)
   9:       309.87    2.061901  ( -0.948319  -1.072086   0.114990)
  10:       377.47    1.179979  ( -0.615529   0.880894   0.158519)
  11:       423.98    6.444957  ( -1.079181  -2.017294  -1.100386)
  12:       461.15    0.392691  (  0.405958  -0.236232  -0.414830)
  13:       527.42   13.059109  (  1.624789   3.042383  -1.078461)
  14:       736.41   24.305119  ( -4.922641   0.229424  -0.141741)
  15:       805.33    3.678541  ( -1.625988  -0.989446   0.236010)
  16:       874.32   36.528875  ( -3.881244  -4.460176  -1.253656)
  17:       891.39    6.075870  ( -1.817867  -0.855164  -1.428259)
  18:       961.00    0.214040  (  0.308148   0.331374  -0.096311)
  19:       996.67   19.796566  (  4.055279   1.453080  -1.113479)
  20:      1001.60    5.373783  (  0.014746  -2.073386  -1.036646)
  21:      1009.65   12.608409  ( -3.504964  -0.508143  -0.255781)
  22:      1036.18    1.548178  (  0.630903   1.026070   0.311962)
  23:      1055.42    1.781317  ( -0.670755  -1.145528   0.138455)
  24:      1086.54    2.020658  (  0.693773   0.205624   1.223542)
  25:      1266.41   12.950636  ( -3.572363   0.396853  -0.177113)
  26:      1273.76   11.611838  ( -2.142502  -1.281059   2.319572)
  27:      1301.54    0.184777  (  0.317897  -0.241347  -0.159594)
  28:      1361.25   12.705901  ( -0.470816   2.945235   1.951878)
  29:      1451.34   10.146385  ( -2.191239   2.309817  -0.097972)
  30:      1491.42    9.151541  ( -1.334594   1.710620   2.108122)
  31:      1549.86    7.909756  (  1.841250   0.609662  -2.036631)
  32:      1563.32    9.560368  (  2.203110   2.053338   0.700343)
  33:      1637.00   40.177848  ( -2.334665   5.873195   0.482467)
  34:      2988.72  101.045169  (  6.156345   2.515217  -7.537789)
  35:      3165.77    4.726706  ( -1.980520   0.458043  -0.771000)
  36:      3167.28   18.164386  ( -2.815884   2.197619   2.325006)
  37:      3173.77   11.165017  ( -0.600169  -2.640706   1.957418)
  38:      3177.38    7.070829  (  1.912136  -1.174223   1.426802)
  39:      3250.59    7.399780  (  0.184707   1.353381  -2.352451)
  40:      3263.56   17.628248  ( -1.485759   1.405468   3.666801)
  41:      3263.98    0.189107  (  0.245094   0.071949  -0.351936)

--------------------------
THERMOCHEMISTRY AT 298.15K
--------------------------

Temperature         ... 298.15 K
Pressure            ... 1.00 atm
Total Mass          ... 84.12 AMU

Throughout the following assumptions are being made:
  (1) The electronic state is orbitally nondegenerate
  (2) There are no thermally accessible electronically excited states
  (3) Hindered rotations indicated by low frequency modes are not
      treated as such but are treated as vibrations and this may
      cause some error
  (4) All equations used are the standard statistical mechanics
      equations for an ideal gas
  (5) All vibrations are strictly harmonic

freq.     168.46  E(vib)   ...       0.38
freq.     265.29  E(vib)   ...       0.29
freq.     309.87  E(vib)   ...       0.26
freq.     377.47  E(vib)   ...       0.21
freq.     423.98  E(vib)   ...       0.18
freq.     461.15  E(vib)   ...       0.16
freq.     527.42  E(vib)   ...       0.13
freq.     736.41  E(vib)   ...       0.06
freq.     805.33  E(vib)   ...       0.05
freq.     874.32  E(vib)   ...       0.04
freq.     891.39  E(vib)   ...       0.04
freq.     961.00  E(vib)   ...       0.03
freq.     996.67  E(vib)   ...       0.02
freq.    1001.60  E(vib)   ...       0.02
freq.    1009.65  E(vib)   ...       0.02
freq.    1036.18  E(vib)   ...       0.02
freq.    1055.42  E(vib)   ...       0.02
freq.    1086.54  E(vib)   ...       0.02
freq.    1266.41  E(vib)   ...       0.01
freq.    1273.76  E(vib)   ...       0.01
freq.    1301.54  E(vib)   ...       0.01
freq.    1361.25  E(vib)   ...       0.01
freq.    1451.34  E(vib)   ...       0.00
freq.    1491.42  E(vib)   ...       0.00
freq.    1549.86  E(vib)   ...       0.00
freq.    1563.32  E(vib)   ...       0.00
freq.    1637.00  E(vib)   ...       0.00
freq.    2988.72  E(vib)   ...       0.00
freq.    3165.77  E(vib)   ...       0.00
freq.    3167.28  E(vib)   ...       0.00
freq.    3173.77  E(vib)   ...       0.00
freq.    3177.38  E(vib)   ...       0.00
freq.    3250.59  E(vib)   ...       0.00
freq.    3263.56  E(vib)   ...       0.00
freq.    3263.98  E(vib)   ...       0.00

------------
INNER ENERGY
------------

The inner energy is: U= E(el) + E(ZPE) + E(vib) + E(rot) + E(trans)
    E(el)   - is the total energy from the electronic structure calculation
              = E(kin-el) + E(nuc-el) + E(el-el) + E(nuc-nuc)
    E(ZPE)  - the the zero temperature vibrational energy from the frequency calculation
    E(vib)  - the the finite temperature correction to E(ZPE) due to population
              of excited vibrational states
    E(rot)  - is the rotational thermal energy
    E(trans)- is the translational thermal energy

Summary of contributions to the inner energy U:
Electronic energy                ...   -270.28700180 Eh
Zero point energy                ...      0.11694998 Eh      73.39 kcal/mol
Thermal vibrational correction   ...      0.00316113 Eh       1.98 kcal/mol
Thermal rotational correction    ...      0.00141627 Eh       0.89 kcal/mol
Thermal translational correction ...      0.00141627 Eh       0.89 kcal/mol
-----------------------------------------------------------------------
Total thermal energy                   -270.16405814 Eh

Summary of corrections to the electronic energy:
(perhaps to be used in another calculation)
Total thermal correction                  0.00599368 Eh       3.76 kcal/mol
Non-thermal (ZPE) correction              0.11694998 Eh      73.39 kcal/mol
-----------------------------------------------------------------------
Total correction                          0.12294366 Eh      77.15 kcal/mol

--------
ENTHALPY
--------

The enthalpy is H = U + kB*T
                kB is Boltzmann's constant
Total free energy                 ...   -270.16405814 Eh
Thermal Enthalpy correction       ...      0.00094421 Eh       0.59 kcal/mol
-----------------------------------------------------------------------
Total Enthalpy                    ...   -270.16311394 Eh

Note: Only C1 symmetry has been detected, increase convergence thresholds
      if your molecule has a higher symmetry. Symmetry factor of 1.0 is
      used for the rotational entropy correction.

Note: Rotational entropy computed according to Herzberg
Infrared and Raman Spectra, Chapter V,1, Van Nostrand Reinhold, 1945
Point Group:  C1, Symmetry Number:   1
Rotational constants in cm-1:     0.160043     0.128504     0.081068

Vibrational entropy computed according to the QRRHO of S. Grimme
Chem.Eur.J. 2012 18 9955

-------
ENTROPY
-------

The entropy contributions are T*S = T*(S(el)+S(vib)+S(rot)+S(trans))
     S(el)   - electronic entropy
     S(vib)  - vibrational entropy
     S(rot)  - rotational entropy
     S(trans)- translational entropy
The entropies will be listed as mutliplied by the temperature to get
units of energy

Electronic entropy                ...      0.00000000 Eh      0.00 kcal/mol
Vibrational entropy               ...      0.00487864 Eh      3.06 kcal/mol
Rotational entropy                ...      0.01253057 Eh      7.86 kcal/mol
Translational entropy             ...      0.01862630 Eh     11.69 kcal/mol
-----------------------------------------------------------------------
Final entropy term                ...      0.03603551 Eh     22.61 kcal/mol

In case the symmetry of your molecule has not been determined correctly
or in case you have a reason to use a different symmetry number we print
out the resulting rotational entropy values for sn=1,12 :
 --------------------------------------------------------
|  sn= 1 | S(rot)=       0.01253057 Eh      7.86 kcal/mol|
|  sn= 2 | S(rot)=       0.01187611 Eh      7.45 kcal/mol|
|  sn= 3 | S(rot)=       0.01149328 Eh      7.21 kcal/mol|
|  sn= 4 | S(rot)=       0.01122166 Eh      7.04 kcal/mol|
|  sn= 5 | S(rot)=       0.01101097 Eh      6.91 kcal/mol|
|  sn= 6 | S(rot)=       0.01083883 Eh      6.80 kcal/mol|
|  sn= 7 | S(rot)=       0.01069328 Eh      6.71 kcal/mol|
|  sn= 8 | S(rot)=       0.01056720 Eh      6.63 kcal/mol|
|  sn= 9 | S(rot)=       0.01045599 Eh      6.56 kcal/mol|
|  sn=10 | S(rot)=       0.01035651 Eh      6.50 kcal/mol|
|  sn=11 | S(rot)=       0.01026652 Eh      6.44 kcal/mol|
|  sn=12 | S(rot)=       0.01018437 Eh      6.39 kcal/mol|
 --------------------------------------------------------

-------------------
GIBBS FREE ENERGY
-------------------

The Gibbs free energy is G = H - T*S

Total enthalpy                    ...   -270.16311394 Eh
Total entropy correction          ...     -0.03603551 Eh    -22.61 kcal/mol
-----------------------------------------------------------------------
Final Gibbs free energy         ...   -270.19914945 Eh

For completeness - the Gibbs free energy minus the electronic energy
G-E(el)                           ...      0.08785236 Eh     55.13 kcal/mol

                             ****ORCA TERMINATED NORMALLY****
TOTAL RUN TIME: 0 days 0 hours 1 minutes 2 seconds 274 msec
